+ 0.0437942 /NodeList/2/DeviceList/1/$ns3::PointToPointNetDevice/TxQueue/Enqueue ns3::PppHeader (Point-to-Point Protocol: IP (0x0021)) ns3::Ipv4Header (tos 0x0 DSCP Default ECN Not-ECT ttl 1 id 0 protocol 17 offset (bytes) 0 flags [none] length: 68 10.1.1.2 > 10.1.1.255) ns3::UdpHeader (length: 48 698 > 698) ns3::olsr::PacketHeader (len: 40 seqNo: 0) ns3::olsr::MessageHeader (type: HELLO TTL: 1 Orig: 10.1.1.2 SeqNo: 0 Validity: 134 Hop count: 0 Size: 16 Interval: 5 (2s) Willingness: DEFAULT) ns3::olsr::MessageHeader (type: MID TTL: 255 Orig: 10.1.1.2 SeqNo: 1 Validity: 231 Hop count: 0 Size: 20 [10.1.2.2, 10.1.3.2])
- 0.0437942 /NodeList/2/DeviceList/1/$ns3::PointToPointNetDevice/TxQueue/Dequeue ns3::PppHeader (Point-to-Point Protocol: IP (0x0021)) ns3::Ipv4Header (tos 0x0 DSCP Default ECN Not-ECT ttl 1 id 0 protocol 17 offset (bytes) 0 flags [none] length: 68 10.1.1.2 > 10.1.1.255) ns3::UdpHeader (length: 48 698 > 698) ns3::olsr::PacketHeader (len: 40 seqNo: 0) ns3::olsr::MessageHeader (type: HELLO TTL: 1 Orig: 10.1.1.2 SeqNo: 0 Validity: 134 Hop count: 0 Size: 16 Interval: 5 (2s) Willingness: DEFAULT) ns3::olsr::MessageHeader (type: MID TTL: 255 Orig: 10.1.1.2 SeqNo: 1 Validity: 231 Hop count: 0 Size: 20 [10.1.2.2, 10.1.3.2])
+ 0.0437942 /NodeList/2/DeviceList/2/$ns3::PointToPointNetDevice/TxQueue/Enqueue ns3::PppHeader (Point-to-Point Protocol: IP (0x0021)) ns3::Ipv4Header (tos 0x0 DSCP Default ECN Not-ECT ttl 1 id 0 protocol 17 offset (bytes) 0 flags [none] length: 68 10.1.2.2 > 10.1.2.255) ns3::UdpHeader (length: 48 698 > 698) ns3::olsr::PacketHeader (len: 40 seqNo: 0) ns3::olsr::MessageHeader (type: HELLO TTL: 1 Orig: 10.1.1.2 SeqNo: 0 Validity: 134 Hop count: 0 Size: 16 Interval: 5 (2s) Willingness: DEFAULT) ns3::olsr::MessageHeader (type: MID TTL: 255 Orig: 10.1.1.2 SeqNo: 1 Validity: 231 Hop count: 0 Size: 20 [10.1.2.2, 10.1.3.2])
- 0.0437942 /NodeList/2/DeviceList/2/$ns3::PointToPointNetDevice/TxQueue/Dequeue ns3::PppHeader (Point-to-Point Protocol: IP (0x0021)) ns3::Ipv4Header (tos 0x0 DSCP Default ECN Not-ECT ttl 1 id 0 protocol 17 offset (bytes) 0 flags [none] length: 68 10.1.2.2 > 10.1.2.255) ns3::UdpHeader (length: 48 698 > 698) ns3::olsr::PacketHeader (len: 40 seqNo: 0) ns3::olsr::MessageHeader (type: HELLO TTL: 1 Orig: 10.1.1.2 SeqNo: 0 Validity: 134 Hop count: 0 Size: 16 Interval: 5 (2s) Willingness: DEFAULT) ns3::olsr::MessageHeader (type: MID TTL: 255 Orig: 10.1.1.2 SeqNo: 1 Validity: 231 Hop count: 0 Size: 20 [10.1.2.2, 10.1.3.2])
+ 0.0437942 /NodeList/2/DeviceList/3/$ns3::PointToPointNetDevice/TxQueue/Enqueue ns3::PppHeader (Point-to-Point Protocol: IP (0x0021)) ns3::Ipv4Header (tos 0x0 DSCP Default ECN Not-ECT ttl 1 id 0 protocol 17 offset (bytes) 0 flags [none] length: 68 10.1.3.2 > 10.1.3.255) ns3::UdpHeader (length: 48 698 > 698) ns3::olsr::PacketHeader (len: 40 seqNo: 0) ns3::olsr::MessageHeader (type: HELLO TTL: 1 Orig: 10.1.1.2 SeqNo: 0 Validity: 134 Hop count: 0 Size: 16 Interval: 5 (2s) Willingness: DEFAULT) ns3::olsr::MessageHeader (type: MID TTL: 255 Orig: 10.1.1.2 SeqNo: 1 Validity: 231 Hop count: 0 Size: 20 [10.1.2.2, 10.1.3.2])
- 0.0437942 /NodeList/2/DeviceList/3/$ns3::PointToPointNetDevice/TxQueue/Dequeue ns3::PppHeader (Point-to-Point Protocol: IP (0x0021)) ns3::Ipv4Header (tos 0x0 DSCP Default ECN Not-ECT ttl 1 id 0 protocol 17 offset (bytes) 0 flags [none] length: 68 10.1.3.2 > 10.1.3.255) ns3::UdpHeader (length: 48 698 > 698) ns3::olsr::PacketHeader (len: 40 seqNo: 0) ns3::olsr::MessageHeader (type: HELLO TTL: 1 Orig: 10.1.1.2 SeqNo: 0 Validity: 134 Hop count: 0 Size: 16 Interval: 5 (2s) Willingness: DEFAULT) ns3::olsr::MessageHeader (type: MID TTL: 255 Orig: 10.1.1.2 SeqNo: 1 Validity: 231 Hop count: 0 Size: 20 [10.1.2.2, 10.1.3.2])
r 0.0459062 /NodeList/0/DeviceList/1/$ns3::PointToPointNetDevice/MacRx ns3::PppHeader (Point-to-Point Protocol: IP (0x0021)) ns3::Ipv4Header (tos 0x0 DSCP Default ECN Not-ECT ttl 1 id 0 protocol 17 offset (bytes) 0 flags [none] length: 68 10.1.1.2 > 10.1.1.255) ns3::UdpHeader (length: 48 698 > 698) ns3::olsr::PacketHeader (len: 40 seqNo: 0) ns3::olsr::MessageHeader (type: HELLO TTL: 1 Orig: 10.1.1.2 SeqNo: 0 Validity: 134 Hop count: 0 Size: 16 Interval: 5 (2s) Willingness: DEFAULT) ns3::olsr::MessageHeader (type: MID TTL: 255 Orig: 10.1.1.2 SeqNo: 1 Validity: 231 Hop count: 0 Size: 20 [10.1.2.2, 10.1.3.2])
r 0.0459062 /NodeList/1/DeviceList/1/$ns3::PointToPointNetDevice/MacRx ns3::PppHeader (Point-to-Point Protocol: IP (0x0021)) ns3::Ipv4Header (tos 0x0 DSCP Default ECN Not-ECT ttl 1 id 0 protocol 17 offset (bytes) 0 flags [none] length: 68 10.1.2.2 > 10.1.2.255) ns3::UdpHeader (length: 48 698 > 698) ns3::olsr::PacketHeader (len: 40 seqNo: 0) ns3::olsr::MessageHeader (type: HELLO TTL: 1 Orig: 10.1.1.2 SeqNo: 0 Validity: 134 Hop count: 0 Size: 16 Interval: 5 (2s) Willingness: DEFAULT) ns3::olsr::MessageHeader (type: MID TTL: 255 Orig: 10.1.1.2 SeqNo: 1 Validity: 231 Hop count: 0 Size: 20 [10.1.2.2, 10.1.3.2])
r 0.0541675 /NodeList/3/DeviceList/1/$ns3::PointToPointNetDevice/MacRx ns3::PppHeader (Point-to-Point Protocol: IP (0x0021)) ns3::Ipv4Header (tos 0x0 DSCP Default ECN Not-ECT ttl 1 id 0 protocol 17 offset (bytes) 0 flags [none] length: 68 10.1.3.2 > 10.1.3.255) ns3::UdpHeader (length: 48 698 > 698) ns3::olsr::PacketHeader (len: 40 seqNo: 0) ns3::olsr::MessageHeader (type: HELLO TTL: 1 Orig: 10.1.1.2 SeqNo: 0 Validity: 134 Hop count: 0 Size: 16 Interval: 5 (2s) Willingness: DEFAULT) ns3::olsr::MessageHeader (type: MID TTL: 255 Orig: 10.1.1.2 SeqNo: 1 Validity: 231 Hop count: 0 Size: 20 [10.1.2.2, 10.1.3.2])
+ 0.15669 /NodeList/3/DeviceList/1/$ns3::PointToPointNetDevice/TxQueue/Enqueue ns3::PppHeader (Point-to-Point Protocol: IP (0x0021)) ns3::Ipv4Header (tos 0x0 DSCP Default ECN Not-ECT ttl 1 id 0 protocol 17 offset (bytes) 0 flags [none] length: 64 10.1.3.1 > 10.1.3.255) ns3::UdpHeader (length: 44 698 > 698) ns3::olsr::PacketHeader (len: 36 seqNo: 0) ns3::olsr::MessageHeader (type: HELLO TTL: 1 Orig: 10.1.3.1 SeqNo: 0 Validity: 134 Hop count: 0 Size: 16 Interval: 5 (2s) Willingness: DEFAULT) ns3::olsr::MessageHeader (type: MID TTL: 255 Orig: 10.1.3.1 SeqNo: 1 Validity: 231 Hop count: 0 Size: 16 [10.1.4.1])
- 0.15669 /NodeList/3/DeviceList/1/$ns3::PointToPointNetDevice/TxQueue/Dequeue ns3::PppHeader (Point-to-Point Protocol: IP (0x0021)) ns3::Ipv4Header (tos 0x0 DSCP Default ECN Not-ECT ttl 1 id 0 protocol 17 offset (bytes) 0 flags [none] length: 64 10.1.3.1 > 10.1.3.255) ns3::UdpHeader (length: 44 698 > 698) ns3::olsr::PacketHeader (len: 36 seqNo: 0) ns3::olsr::MessageHeader (type: HELLO TTL: 1 Orig: 10.1.3.1 SeqNo: 0 Validity: 134 Hop count: 0 Size: 16 Interval: 5 (2s) Willingness: DEFAULT) ns3::olsr::MessageHeader (type: MID TTL: 255 Orig: 10.1.3.1 SeqNo: 1 Validity: 231 Hop count: 0 Size: 16 [10.1.4.1])
+ 0.15669 /NodeList/3/DeviceList/2/$ns3::PointToPointNetDevice/TxQueue/Enqueue ns3::PppHeader (Point-to-Point Protocol: IP (0x0021)) ns3::Ipv4Header (tos 0x0 DSCP Default ECN Not-ECT ttl 1 id 0 protocol 17 offset (bytes) 0 flags [none] length: 64 10.1.4.1 > 10.1.4.255) ns3::UdpHeader (length: 44 698 > 698) ns3::olsr::PacketHeader (len: 36 seqNo: 0) ns3::olsr::MessageHeader (type: HELLO TTL: 1 Orig: 10.1.3.1 SeqNo: 0 Validity: 134 Hop count: 0 Size: 16 Interval: 5 (2s) Willingness: DEFAULT) ns3::olsr::MessageHeader (type: MID TTL: 255 Orig: 10.1.3.1 SeqNo: 1 Validity: 231 Hop count: 0 Size: 16 [10.1.4.1])
- 0.15669 /NodeList/3/DeviceList/2/$ns3::PointToPointNetDevice/TxQueue/Dequeue ns3::PppHeader (Point-to-Point Protocol: IP (0x0021)) ns3::Ipv4Header (tos 0x0 DSCP Default ECN Not-ECT ttl 1 id 0 protocol 17 offset (bytes) 0 flags [none] length: 64 10.1.4.1 > 10.1.4.255) ns3::UdpHeader (length: 44 698 > 698) ns3::olsr::PacketHeader (len: 36 seqNo: 0) ns3::olsr::MessageHeader (type: HELLO TTL: 1 Orig: 10.1.3.1 SeqNo: 0 Validity: 134 Hop count: 0 Size: 16 Interval: 5 (2s) Willingness: DEFAULT) ns3::olsr::MessageHeader (type: MID TTL: 255 Orig: 10.1.3.1 SeqNo: 1 Validity: 231 Hop count: 0 Size: 16 [10.1.4.1])
+ 0.156914 /NodeList/1/DeviceList/1/$ns3::PointToPointNetDevice/TxQueue/Enqueue ns3::PppHeader (Point-to-Point Protocol: IP (0x0021)) ns3::Ipv4Header (tos 0x0 DSCP Default ECN Not-ECT ttl 1 id 0 protocol 17 offset (bytes) 0 flags [none] length: 48 10.1.2.1 > 10.1.2.255) ns3::UdpHeader (length: 28 698 > 698) ns3::olsr::PacketHeader (len: 20 seqNo: 0) ns3::olsr::MessageHeader (type: HELLO TTL: 1 Orig: 10.1.2.1 SeqNo: 0 Validity: 134 Hop count: 0 Size: 16 Interval: 5 (2s) Willingness: DEFAULT)
- 0.156914 /NodeList/1/DeviceList/1/$ns3::PointToPointNetDevice/TxQueue/Dequeue ns3::PppHeader (Point-to-Point Protocol: IP (0x0021)) ns3::Ipv4Header (tos 0x0 DSCP Default ECN Not-ECT ttl 1 id 0 protocol 17 offset (bytes) 0 flags [none] length: 48 10.1.2.1 > 10.1.2.255) ns3::UdpHeader (length: 28 698 > 698) ns3::olsr::PacketHeader (len: 20 seqNo: 0) ns3::olsr::MessageHeader (type: HELLO TTL: 1 Orig: 10.1.2.1 SeqNo: 0 Validity: 134 Hop count: 0 Size: 16 Interval: 5 (2s) Willingness: DEFAULT)
r 0.158994 /NodeList/2/DeviceList/2/$ns3::PointToPointNetDevice/MacRx ns3::PppHeader (Point-to-Point Protocol: IP (0x0021)) ns3::Ipv4Header (tos 0x0 DSCP Default ECN Not-ECT ttl 1 id 0 protocol 17 offset (bytes) 0 flags [none] length: 48 10.1.2.1 > 10.1.2.255) ns3::UdpHeader (length: 28 698 > 698) ns3::olsr::PacketHeader (len: 20 seqNo: 0) ns3::olsr::MessageHeader (type: HELLO TTL: 1 Orig: 10.1.2.1 SeqNo: 0 Validity: 134 Hop count: 0 Size: 16 Interval: 5 (2s) Willingness: DEFAULT)
r 0.167042 /NodeList/2/DeviceList/3/$ns3::PointToPointNetDevice/MacRx ns3::PppHeader (Point-to-Point Protocol: IP (0x0021)) ns3::Ipv4Header (tos 0x0 DSCP Default ECN Not-ECT ttl 1 id 0 protocol 17 offset (bytes) 0 flags [none] length: 64 10.1.3.1 > 10.1.3.255) ns3::UdpHeader (length: 44 698 > 698) ns3::olsr::PacketHeader (len: 36 seqNo: 0) ns3::olsr::MessageHeader (type: HELLO TTL: 1 Orig: 10.1.3.1 SeqNo: 0 Validity: 134 Hop count: 0 Size: 16 Interval: 5 (2s) Willingness: DEFAULT) ns3::olsr::MessageHeader (type: MID TTL: 255 Orig: 10.1.3.1 SeqNo: 1 Validity: 231 Hop count: 0 Size: 16 [10.1.4.1])
r 0.167042 /NodeList/4/DeviceList/1/$ns3::PointToPointNetDevice/MacRx ns3::PppHeader (Point-to-Point Protocol: IP (0x0021)) ns3::Ipv4Header (tos 0x0 DSCP Default ECN Not-ECT ttl 1 id 0 protocol 17 offset (bytes) 0 flags [none] length: 64 10.1.4.1 > 10.1.4.255) ns3::UdpHeader (length: 44 698 > 698) ns3::olsr::PacketHeader (len: 36 seqNo: 0) ns3::olsr::MessageHeader (type: HELLO TTL: 1 Orig: 10.1.3.1 SeqNo: 0 Validity: 134 Hop count: 0 Size: 16 Interval: 5 (2s) Willingness: DEFAULT) ns3::olsr::MessageHeader (type: MID TTL: 255 Orig: 10.1.3.1 SeqNo: 1 Validity: 231 Hop count: 0 Size: 16 [10.1.4.1])
+ 0.278942 /NodeList/4/DeviceList/1/$ns3::PointToPointNetDevice/TxQueue/Enqueue ns3::PppHeader (Point-to-Point Protocol: IP (0x0021)) ns3::Ipv4Header (tos 0x0 DSCP Default ECN Not-ECT ttl 1 id 0 protocol 17 offset (bytes) 0 flags [none] length: 48 10.1.4.2 > 10.1.4.255) ns3::UdpHeader (length: 28 698 > 698) ns3::olsr::PacketHeader (len: 20 seqNo: 0) ns3::olsr::MessageHeader (type: HELLO TTL: 1 Orig: 10.1.4.2 SeqNo: 0 Validity: 134 Hop count: 0 Size: 16 Interval: 5 (2s) Willingness: DEFAULT)
- 0.278942 /NodeList/4/DeviceList/1/$ns3::PointToPointNetDevice/TxQueue/Dequeue ns3::PppHeader (Point-to-Point Protocol: IP (0x0021)) ns3::Ipv4Header (tos 0x0 DSCP Default ECN Not-ECT ttl 1 id 0 protocol 17 offset (bytes) 0 flags [none] length: 48 10.1.4.2 > 10.1.4.255) ns3::UdpHeader (length: 28 698 > 698) ns3::olsr::PacketHeader (len: 20 seqNo: 0) ns3::olsr::MessageHeader (type: HELLO TTL: 1 Orig: 10.1.4.2 SeqNo: 0 Validity: 134 Hop count: 0 Size: 16 Interval: 5 (2s) Willingness: DEFAULT)
r 0.289209 /NodeList/3/DeviceList/2/$ns3::PointToPointNetDevice/MacRx ns3::PppHeader (Point-to-Point Protocol: IP (0x0021)) ns3::Ipv4Header (tos 0x0 DSCP Default ECN Not-ECT ttl 1 id 0 protocol 17 offset (bytes) 0 flags [none] length: 48 10.1.4.2 > 10.1.4.255) ns3::UdpHeader (length: 28 698 > 698) ns3::olsr::PacketHeader (len: 20 seqNo: 0) ns3::olsr::MessageHeader (type: HELLO TTL: 1 Orig: 10.1.4.2 SeqNo: 0 Validity: 134 Hop count: 0 Size: 16 Interval: 5 (2s) Willingness: DEFAULT)
+ 0.417575 /NodeList/0/DeviceList/1/$ns3::PointToPointNetDevice/TxQueue/Enqueue ns3::PppHeader (Point-to-Point Protocol: IP (0x0021)) ns3::Ipv4Header (tos 0x0 DSCP Default ECN Not-ECT ttl 1 id 0 protocol 17 offset (bytes) 0 flags [none] length: 48 10.1.1.1 > 10.1.1.255) ns3::UdpHeader (length: 28 698 > 698) ns3::olsr::PacketHeader (len: 20 seqNo: 0) ns3::olsr::MessageHeader (type: HELLO TTL: 1 Orig: 10.1.1.1 SeqNo: 0 Validity: 134 Hop count: 0 Size: 16 Interval: 5 (2s) Willingness: DEFAULT)
- 0.417575 /NodeList/0/DeviceList/1/$ns3::PointToPointNetDevice/TxQueue/Dequeue ns3::PppHeader (Point-to-Point Protocol: IP (0x0021)) ns3::Ipv4Header (tos 0x0 DSCP Default ECN Not-ECT ttl 1 id 0 protocol 17 offset (bytes) 0 flags [none] length: 48 10.1.1.1 > 10.1.1.255) ns3::UdpHeader (length: 28 698 > 698) ns3::olsr::PacketHeader (len: 20 seqNo: 0) ns3::olsr::MessageHeader (type: HELLO TTL: 1 Orig: 10.1.1.1 SeqNo: 0 Validity: 134 Hop count: 0 Size: 16 Interval: 5 (2s) Willingness: DEFAULT)
r 0.419655 /NodeList/2/DeviceList/1/$ns3::PointToPointNetDevice/MacRx ns3::PppHeader (Point-to-Point Protocol: IP (0x0021)) ns3::Ipv4Header (tos 0x0 DSCP Default ECN Not-ECT ttl 1 id 0 protocol 17 offset (bytes) 0 flags [none] length: 48 10.1.1.1 > 10.1.1.255) ns3::UdpHeader (length: 28 698 > 698) ns3::olsr::PacketHeader (len: 20 seqNo: 0) ns3::olsr::MessageHeader (type: HELLO TTL: 1 Orig: 10.1.1.1 SeqNo: 0 Validity: 134 Hop count: 0 Size: 16 Interval: 5 (2s) Willingness: DEFAULT)
+ 2.05292 /NodeList/3/DeviceList/1/$ns3::PointToPointNetDevice/TxQueue/Enqueue ns3::PppHeader (Point-to-Point Protocol: IP (0x0021)) ns3::Ipv4Header (tos 0x0 DSCP Default ECN Not-ECT ttl 1 id 1 protocol 17 offset (bytes) 0 flags [none] length: 64 10.1.3.1 > 10.1.3.255) ns3::UdpHeader (length: 44 698 > 698) ns3::olsr::PacketHeader (len: 36 seqNo: 1) ns3::olsr::MessageHeader (type: HELLO TTL: 1 Orig: 10.1.3.1 SeqNo: 2 Validity: 134 Hop count: 0 Size: 32 Interval: 5 (2s) Willingness: DEFAULT Link code: 1 [10.1.3.2] Link code: 1 [10.1.4.2])
- 2.05292 /NodeList/3/DeviceList/1/$ns3::PointToPointNetDevice/TxQueue/Dequeue ns3::PppHeader (Point-to-Point Protocol: IP (0x0021)) ns3::Ipv4Header (tos 0x0 DSCP Default ECN Not-ECT ttl 1 id 1 protocol 17 offset (bytes) 0 flags [none] length: 64 10.1.3.1 > 10.1.3.255) ns3::UdpHeader (length: 44 698 > 698) ns3::olsr::PacketHeader (len: 36 seqNo: 1) ns3::olsr::MessageHeader (type: HELLO TTL: 1 Orig: 10.1.3.1 SeqNo: 2 Validity: 134 Hop count: 0 Size: 32 Interval: 5 (2s) Willingness: DEFAULT Link code: 1 [10.1.3.2] Link code: 1 [10.1.4.2])
+ 2.05292 /NodeList/3/DeviceList/2/$ns3::PointToPointNetDevice/TxQueue/Enqueue ns3::PppHeader (Point-to-Point Protocol: IP (0x0021)) ns3::Ipv4Header (tos 0x0 DSCP Default ECN Not-ECT ttl 1 id 1 protocol 17 offset (bytes) 0 flags [none] length: 64 10.1.4.1 > 10.1.4.255) ns3::UdpHeader (length: 44 698 > 698) ns3::olsr::PacketHeader (len: 36 seqNo: 1) ns3::olsr::MessageHeader (type: HELLO TTL: 1 Orig: 10.1.3.1 SeqNo: 2 Validity: 134 Hop count: 0 Size: 32 Interval: 5 (2s) Willingness: DEFAULT Link code: 1 [10.1.3.2] Link code: 1 [10.1.4.2])
- 2.05292 /NodeList/3/DeviceList/2/$ns3::PointToPointNetDevice/TxQueue/Dequeue ns3::PppHeader (Point-to-Point Protocol: IP (0x0021)) ns3::Ipv4Header (tos 0x0 DSCP Default ECN Not-ECT ttl 1 id 1 protocol 17 offset (bytes) 0 flags [none] length: 64 10.1.4.1 > 10.1.4.255) ns3::UdpHeader (length: 44 698 > 698) ns3::olsr::PacketHeader (len: 36 seqNo: 1) ns3::olsr::MessageHeader (type: HELLO TTL: 1 Orig: 10.1.3.1 SeqNo: 2 Validity: 134 Hop count: 0 Size: 32 Interval: 5 (2s) Willingness: DEFAULT Link code: 1 [10.1.3.2] Link code: 1 [10.1.4.2])
r 2.06328 /NodeList/2/DeviceList/3/$ns3::PointToPointNetDevice/MacRx ns3::PppHeader (Point-to-Point Protocol: IP (0x0021)) ns3::Ipv4Header (tos 0x0 DSCP Default ECN Not-ECT ttl 1 id 1 protocol 17 offset (bytes) 0 flags [none] length: 64 10.1.3.1 > 10.1.3.255) ns3::UdpHeader (length: 44 698 > 698) ns3::olsr::PacketHeader (len: 36 seqNo: 1) ns3::olsr::MessageHeader (type: HELLO TTL: 1 Orig: 10.1.3.1 SeqNo: 2 Validity: 134 Hop count: 0 Size: 32 Interval: 5 (2s) Willingness: DEFAULT Link code: 1 [10.1.3.2] Link code: 1 [10.1.4.2])
r 2.06328 /NodeList/4/DeviceList/1/$ns3::PointToPointNetDevice/MacRx ns3::PppHeader (Point-to-Point Protocol: IP (0x0021)) ns3::Ipv4Header (tos 0x0 DSCP Default ECN Not-ECT ttl 1 id 1 protocol 17 offset (bytes) 0 flags [none] length: 64 10.1.4.1 > 10.1.4.255) ns3::UdpHeader (length: 44 698 > 698) ns3::olsr::PacketHeader (len: 36 seqNo: 1) ns3::olsr::MessageHeader (type: HELLO TTL: 1 Orig: 10.1.3.1 SeqNo: 2 Validity: 134 Hop count: 0 Size: 32 Interval: 5 (2s) Willingness: DEFAULT Link code: 1 [10.1.3.2] Link code: 1 [10.1.4.2])
+ 2.11472 /NodeList/4/DeviceList/1/$ns3::PointToPointNetDevice/TxQueue/Enqueue ns3::PppHeader (Point-to-Point Protocol: IP (0x0021)) ns3::Ipv4Header (tos 0x0 DSCP Default ECN Not-ECT ttl 1 id 1 protocol 17 offset (bytes) 0 flags [none] length: 56 10.1.4.2 > 10.1.4.255) ns3::UdpHeader (length: 36 698 > 698) ns3::olsr::PacketHeader (len: 28 seqNo: 1) ns3::olsr::MessageHeader (type: HELLO TTL: 1 Orig: 10.1.4.2 SeqNo: 1 Validity: 134 Hop count: 0 Size: 24 Interval: 5 (2s) Willingness: DEFAULT Link code: 1 [10.1.4.1])
- 2.11472 /NodeList/4/DeviceList/1/$ns3::PointToPointNetDevice/TxQueue/Dequeue ns3::PppHeader (Point-to-Point Protocol: IP (0x0021)) ns3::Ipv4Header (tos 0x0 DSCP Default ECN Not-ECT ttl 1 id 1 protocol 17 offset (bytes) 0 flags [none] length: 56 10.1.4.2 > 10.1.4.255) ns3::UdpHeader (length: 36 698 > 698) ns3::olsr::PacketHeader (len: 28 seqNo: 1) ns3::olsr::MessageHeader (type: HELLO TTL: 1 Orig: 10.1.4.2 SeqNo: 1 Validity: 134 Hop count: 0 Size: 24 Interval: 5 (2s) Willingness: DEFAULT Link code: 1 [10.1.4.1])
r 2.12502 /NodeList/3/DeviceList/2/$ns3::PointToPointNetDevice/MacRx ns3::PppHeader (Point-to-Point Protocol: IP (0x0021)) ns3::Ipv4Header (tos 0x0 DSCP Default ECN Not-ECT ttl 1 id 1 protocol 17 offset (bytes) 0 flags [none] length: 56 10.1.4.2 > 10.1.4.255) ns3::UdpHeader (length: 36 698 > 698) ns3::olsr::PacketHeader (len: 28 seqNo: 1) ns3::olsr::MessageHeader (type: HELLO TTL: 1 Orig: 10.1.4.2 SeqNo: 1 Validity: 134 Hop count: 0 Size: 24 Interval: 5 (2s) Willingness: DEFAULT Link code: 1 [10.1.4.1])
+ 2.12553 /NodeList/1/DeviceList/1/$ns3::PointToPointNetDevice/TxQueue/Enqueue ns3::PppHeader (Point-to-Point Protocol: IP (0x0021)) ns3::Ipv4Header (tos 0x0 DSCP Default ECN Not-ECT ttl 1 id 1 protocol 17 offset (bytes) 0 flags [none] length: 56 10.1.2.1 > 10.1.2.255) ns3::UdpHeader (length: 36 698 > 698) ns3::olsr::PacketHeader (len: 28 seqNo: 1) ns3::olsr::MessageHeader (type: HELLO TTL: 1 Orig: 10.1.2.1 SeqNo: 1 Validity: 134 Hop count: 0 Size: 24 Interval: 5 (2s) Willingness: DEFAULT Link code: 1 [10.1.2.2])
- 2.12553 /NodeList/1/DeviceList/1/$ns3::PointToPointNetDevice/TxQueue/Dequeue ns3::PppHeader (Point-to-Point Protocol: IP (0x0021)) ns3::Ipv4Header (tos 0x0 DSCP Default ECN Not-ECT ttl 1 id 1 protocol 17 offset (bytes) 0 flags [none] length: 56 10.1.2.1 > 10.1.2.255) ns3::UdpHeader (length: 36 698 > 698) ns3::olsr::PacketHeader (len: 28 seqNo: 1) ns3::olsr::MessageHeader (type: HELLO TTL: 1 Orig: 10.1.2.1 SeqNo: 1 Validity: 134 Hop count: 0 Size: 24 Interval: 5 (2s) Willingness: DEFAULT Link code: 1 [10.1.2.2])
r 2.12762 /NodeList/2/DeviceList/2/$ns3::PointToPointNetDevice/MacRx ns3::PppHeader (Point-to-Point Protocol: IP (0x0021)) ns3::Ipv4Header (tos 0x0 DSCP Default ECN Not-ECT ttl 1 id 1 protocol 17 offset (bytes) 0 flags [none] length: 56 10.1.2.1 > 10.1.2.255) ns3::UdpHeader (length: 36 698 > 698) ns3::olsr::PacketHeader (len: 28 seqNo: 1) ns3::olsr::MessageHeader (type: HELLO TTL: 1 Orig: 10.1.2.1 SeqNo: 1 Validity: 134 Hop count: 0 Size: 24 Interval: 5 (2s) Willingness: DEFAULT Link code: 1 [10.1.2.2])
+ 2.23902 /NodeList/2/DeviceList/1/$ns3::PointToPointNetDevice/TxQueue/Enqueue ns3::PppHeader (Point-to-Point Protocol: IP (0x0021)) ns3::Ipv4Header (tos 0x0 DSCP Default ECN Not-ECT ttl 1 id 1 protocol 17 offset (bytes) 0 flags [none] length: 72 10.1.1.2 > 10.1.1.255) ns3::UdpHeader (length: 52 698 > 698) ns3::olsr::PacketHeader (len: 44 seqNo: 1) ns3::olsr::MessageHeader (type: HELLO TTL: 1 Orig: 10.1.1.2 SeqNo: 2 Validity: 134 Hop count: 0 Size: 40 Interval: 5 (2s) Willingness: DEFAULT Link code: 1 [10.1.2.1] Link code: 1 [10.1.3.1] Link code: 1 [10.1.1.1])
- 2.23902 /NodeList/2/DeviceList/1/$ns3::PointToPointNetDevice/TxQueue/Dequeue ns3::PppHeader (Point-to-Point Protocol: IP (0x0021)) ns3::Ipv4Header (tos 0x0 DSCP Default ECN Not-ECT ttl 1 id 1 protocol 17 offset (bytes) 0 flags [none] length: 72 10.1.1.2 > 10.1.1.255) ns3::UdpHeader (length: 52 698 > 698) ns3::olsr::PacketHeader (len: 44 seqNo: 1) ns3::olsr::MessageHeader (type: HELLO TTL: 1 Orig: 10.1.1.2 SeqNo: 2 Validity: 134 Hop count: 0 Size: 40 Interval: 5 (2s) Willingness: DEFAULT Link code: 1 [10.1.2.1] Link code: 1 [10.1.3.1] Link code: 1 [10.1.1.1])
+ 2.23902 /NodeList/2/DeviceList/2/$ns3::PointToPointNetDevice/TxQueue/Enqueue ns3::PppHeader (Point-to-Point Protocol: IP (0x0021)) ns3::Ipv4Header (tos 0x0 DSCP Default ECN Not-ECT ttl 1 id 1 protocol 17 offset (bytes) 0 flags [none] length: 72 10.1.2.2 > 10.1.2.255) ns3::UdpHeader (length: 52 698 > 698) ns3::olsr::PacketHeader (len: 44 seqNo: 1) ns3::olsr::MessageHeader (type: HELLO TTL: 1 Orig: 10.1.1.2 SeqNo: 2 Validity: 134 Hop count: 0 Size: 40 Interval: 5 (2s) Willingness: DEFAULT Link code: 1 [10.1.2.1] Link code: 1 [10.1.3.1] Link code: 1 [10.1.1.1])
- 2.23902 /NodeList/2/DeviceList/2/$ns3::PointToPointNetDevice/TxQueue/Dequeue ns3::PppHeader (Point-to-Point Protocol: IP (0x0021)) ns3::Ipv4Header (tos 0x0 DSCP Default ECN Not-ECT ttl 1 id 1 protocol 17 offset (bytes) 0 flags [none] length: 72 10.1.2.2 > 10.1.2.255) ns3::UdpHeader (length: 52 698 > 698) ns3::olsr::PacketHeader (len: 44 seqNo: 1) ns3::olsr::MessageHeader (type: HELLO TTL: 1 Orig: 10.1.1.2 SeqNo: 2 Validity: 134 Hop count: 0 Size: 40 Interval: 5 (2s) Willingness: DEFAULT Link code: 1 [10.1.2.1] Link code: 1 [10.1.3.1] Link code: 1 [10.1.1.1])
+ 2.23902 /NodeList/2/DeviceList/3/$ns3::PointToPointNetDevice/TxQueue/Enqueue ns3::PppHeader (Point-to-Point Protocol: IP (0x0021)) ns3::Ipv4Header (tos 0x0 DSCP Default ECN Not-ECT ttl 1 id 1 protocol 17 offset (bytes) 0 flags [none] length: 72 10.1.3.2 > 10.1.3.255) ns3::UdpHeader (length: 52 698 > 698) ns3::olsr::PacketHeader (len: 44 seqNo: 1) ns3::olsr::MessageHeader (type: HELLO TTL: 1 Orig: 10.1.1.2 SeqNo: 2 Validity: 134 Hop count: 0 Size: 40 Interval: 5 (2s) Willingness: DEFAULT Link code: 1 [10.1.2.1] Link code: 1 [10.1.3.1] Link code: 1 [10.1.1.1])
- 2.23902 /NodeList/2/DeviceList/3/$ns3::PointToPointNetDevice/TxQueue/Dequeue ns3::PppHeader (Point-to-Point Protocol: IP (0x0021)) ns3::Ipv4Header (tos 0x0 DSCP Default ECN Not-ECT ttl 1 id 1 protocol 17 offset (bytes) 0 flags [none] length: 72 10.1.3.2 > 10.1.3.255) ns3::UdpHeader (length: 52 698 > 698) ns3::olsr::PacketHeader (len: 44 seqNo: 1) ns3::olsr::MessageHeader (type: HELLO TTL: 1 Orig: 10.1.1.2 SeqNo: 2 Validity: 134 Hop count: 0 Size: 40 Interval: 5 (2s) Willingness: DEFAULT Link code: 1 [10.1.2.1] Link code: 1 [10.1.3.1] Link code: 1 [10.1.1.1])
r 2.24114 /NodeList/0/DeviceList/1/$ns3::PointToPointNetDevice/MacRx ns3::PppHeader (Point-to-Point Protocol: IP (0x0021)) ns3::Ipv4Header (tos 0x0 DSCP Default ECN Not-ECT ttl 1 id 1 protocol 17 offset (bytes) 0 flags [none] length: 72 10.1.1.2 > 10.1.1.255) ns3::UdpHeader (length: 52 698 > 698) ns3::olsr::PacketHeader (len: 44 seqNo: 1) ns3::olsr::MessageHeader (type: HELLO TTL: 1 Orig: 10.1.1.2 SeqNo: 2 Validity: 134 Hop count: 0 Size: 40 Interval: 5 (2s) Willingness: DEFAULT Link code: 1 [10.1.2.1] Link code: 1 [10.1.3.1] Link code: 1 [10.1.1.1])
r 2.24114 /NodeList/1/DeviceList/1/$ns3::PointToPointNetDevice/MacRx ns3::PppHeader (Point-to-Point Protocol: IP (0x0021)) ns3::Ipv4Header (tos 0x0 DSCP Default ECN Not-ECT ttl 1 id 1 protocol 17 offset (bytes) 0 flags [none] length: 72 10.1.2.2 > 10.1.2.255) ns3::UdpHeader (length: 52 698 > 698) ns3::olsr::PacketHeader (len: 44 seqNo: 1) ns3::olsr::MessageHeader (type: HELLO TTL: 1 Orig: 10.1.1.2 SeqNo: 2 Validity: 134 Hop count: 0 Size: 40 Interval: 5 (2s) Willingness: DEFAULT Link code: 1 [10.1.2.1] Link code: 1 [10.1.3.1] Link code: 1 [10.1.1.1])
r 2.24942 /NodeList/3/DeviceList/1/$ns3::PointToPointNetDevice/MacRx ns3::PppHeader (Point-to-Point Protocol: IP (0x0021)) ns3::Ipv4Header (tos 0x0 DSCP Default ECN Not-ECT ttl 1 id 1 protocol 17 offset (bytes) 0 flags [none] length: 72 10.1.3.2 > 10.1.3.255) ns3::UdpHeader (length: 52 698 > 698) ns3::olsr::PacketHeader (len: 44 seqNo: 1) ns3::olsr::MessageHeader (type: HELLO TTL: 1 Orig: 10.1.1.2 SeqNo: 2 Validity: 134 Hop count: 0 Size: 40 Interval: 5 (2s) Willingness: DEFAULT Link code: 1 [10.1.2.1] Link code: 1 [10.1.3.1] Link code: 1 [10.1.1.1])
+ 2.26308 /NodeList/0/DeviceList/1/$ns3::PointToPointNetDevice/TxQueue/Enqueue ns3::PppHeader (Point-to-Point Protocol: IP (0x0021)) ns3::Ipv4Header (tos 0x0 DSCP Default ECN Not-ECT ttl 1 id 1 protocol 17 offset (bytes) 0 flags [none] length: 56 10.1.1.1 > 10.1.1.255) ns3::UdpHeader (length: 36 698 > 698) ns3::olsr::PacketHeader (len: 28 seqNo: 1) ns3::olsr::MessageHeader (type: HELLO TTL: 1 Orig: 10.1.1.1 SeqNo: 1 Validity: 134 Hop count: 0 Size: 24 Interval: 5 (2s) Willingness: DEFAULT Link code: 1 [10.1.1.2])
- 2.26308 /NodeList/0/DeviceList/1/$ns3::PointToPointNetDevice/TxQueue/Dequeue ns3::PppHeader (Point-to-Point Protocol: IP (0x0021)) ns3::Ipv4Header (tos 0x0 DSCP Default ECN Not-ECT ttl 1 id 1 protocol 17 offset (bytes) 0 flags [none] length: 56 10.1.1.1 > 10.1.1.255) ns3::UdpHeader (length: 36 698 > 698) ns3::olsr::PacketHeader (len: 28 seqNo: 1) ns3::olsr::MessageHeader (type: HELLO TTL: 1 Orig: 10.1.1.1 SeqNo: 1 Validity: 134 Hop count: 0 Size: 24 Interval: 5 (2s) Willingness: DEFAULT Link code: 1 [10.1.1.2])
r 2.26518 /NodeList/2/DeviceList/1/$ns3::PointToPointNetDevice/MacRx ns3::PppHeader (Point-to-Point Protocol: IP (0x0021)) ns3::Ipv4Header (tos 0x0 DSCP Default ECN Not-ECT ttl 1 id 1 protocol 17 offset (bytes) 0 flags [none] length: 56 10.1.1.1 > 10.1.1.255) ns3::UdpHeader (length: 36 698 > 698) ns3::olsr::PacketHeader (len: 28 seqNo: 1) ns3::olsr::MessageHeader (type: HELLO TTL: 1 Orig: 10.1.1.1 SeqNo: 1 Validity: 134 Hop count: 0 Size: 24 Interval: 5 (2s) Willingness: DEFAULT Link code: 1 [10.1.1.2])
+ 4.00708 /NodeList/2/DeviceList/1/$ns3::PointToPointNetDevice/TxQueue/Enqueue ns3::PppHeader (Point-to-Point Protocol: IP (0x0021)) ns3::Ipv4Header (tos 0x0 DSCP Default ECN Not-ECT ttl 1 id 2 protocol 17 offset (bytes) 0 flags [none] length: 72 10.1.1.2 > 10.1.1.255) ns3::UdpHeader (length: 52 698 > 698) ns3::olsr::PacketHeader (len: 44 seqNo: 2) ns3::olsr::MessageHeader (type: HELLO TTL: 1 Orig: 10.1.1.2 SeqNo: 3 Validity: 134 Hop count: 0 Size: 40 Interval: 5 (2s) Willingness: DEFAULT Link code: 6 [10.1.2.1] Link code: 6 [10.1.3.1] Link code: 6 [10.1.1.1])
- 4.00708 /NodeList/2/DeviceList/1/$ns3::PointToPointNetDevice/TxQueue/Dequeue ns3::PppHeader (Point-to-Point Protocol: IP (0x0021)) ns3::Ipv4Header (tos 0x0 DSCP Default ECN Not-ECT ttl 1 id 2 protocol 17 offset (bytes) 0 flags [none] length: 72 10.1.1.2 > 10.1.1.255) ns3::UdpHeader (length: 52 698 > 698) ns3::olsr::PacketHeader (len: 44 seqNo: 2) ns3::olsr::MessageHeader (type: HELLO TTL: 1 Orig: 10.1.1.2 SeqNo: 3 Validity: 134 Hop count: 0 Size: 40 Interval: 5 (2s) Willingness: DEFAULT Link code: 6 [10.1.2.1] Link code: 6 [10.1.3.1] Link code: 6 [10.1.1.1])
+ 4.00708 /NodeList/2/DeviceList/2/$ns3::PointToPointNetDevice/TxQueue/Enqueue ns3::PppHeader (Point-to-Point Protocol: IP (0x0021)) ns3::Ipv4Header (tos 0x0 DSCP Default ECN Not-ECT ttl 1 id 2 protocol 17 offset (bytes) 0 flags [none] length: 72 10.1.2.2 > 10.1.2.255) ns3::UdpHeader (length: 52 698 > 698) ns3::olsr::PacketHeader (len: 44 seqNo: 2) ns3::olsr::MessageHeader (type: HELLO TTL: 1 Orig: 10.1.1.2 SeqNo: 3 Validity: 134 Hop count: 0 Size: 40 Interval: 5 (2s) Willingness: DEFAULT Link code: 6 [10.1.2.1] Link code: 6 [10.1.3.1] Link code: 6 [10.1.1.1])
- 4.00708 /NodeList/2/DeviceList/2/$ns3::PointToPointNetDevice/TxQueue/Dequeue ns3::PppHeader (Point-to-Point Protocol: IP (0x0021)) ns3::Ipv4Header (tos 0x0 DSCP Default ECN Not-ECT ttl 1 id 2 protocol 17 offset (bytes) 0 flags [none] length: 72 10.1.2.2 > 10.1.2.255) ns3::UdpHeader (length: 52 698 > 698) ns3::olsr::PacketHeader (len: 44 seqNo: 2) ns3::olsr::MessageHeader (type: HELLO TTL: 1 Orig: 10.1.1.2 SeqNo: 3 Validity: 134 Hop count: 0 Size: 40 Interval: 5 (2s) Willingness: DEFAULT Link code: 6 [10.1.2.1] Link code: 6 [10.1.3.1] Link code: 6 [10.1.1.1])
+ 4.00708 /NodeList/2/DeviceList/3/$ns3::PointToPointNetDevice/TxQueue/Enqueue ns3::PppHeader (Point-to-Point Protocol: IP (0x0021)) ns3::Ipv4Header (tos 0x0 DSCP Default ECN Not-ECT ttl 1 id 2 protocol 17 offset (bytes) 0 flags [none] length: 72 10.1.3.2 > 10.1.3.255) ns3::UdpHeader (length: 52 698 > 698) ns3::olsr::PacketHeader (len: 44 seqNo: 2) ns3::olsr::MessageHeader (type: HELLO TTL: 1 Orig: 10.1.1.2 SeqNo: 3 Validity: 134 Hop count: 0 Size: 40 Interval: 5 (2s) Willingness: DEFAULT Link code: 6 [10.1.2.1] Link code: 6 [10.1.3.1] Link code: 6 [10.1.1.1])